HEADER
"PSFversion" "1.00"
"Time Stamp" "Dec  4 23:25:26 2019"
TYPE
"variable" STRUCT(
"value" FLOAT DOUBLE
) PROP( "key" "element" )
VALUE
"VDS" "variable" ( 1.6 ) PROP( )
"VGS" "variable" ( 1 ) PROP( )
"temp" "variable" ( 27 ) PROP( )
END
