HEADER
"PSFversion" "1.00"
"I3n" "MOS_AC"
"V0n" "analogLib_vsin_spectre"
