HEADER
"PSFversion" "1.00"
"design" "(\"CHARACTERIZATION\" \"NOISE_NMOS\" \"schematic\" \"\")"
"simulator" "spectre"
"temperature" "27"
"host" ""
"date" "Dec  9 14:45:01 2019"
"title" ""
"analysisList" "()"
END
