HEADER
"PSFversion" "1.00"
"Time Stamp" "Dec  6 00:10:00 2019"
TYPE
"variable" STRUCT(
"value" FLOAT DOUBLE
) PROP( "key" "element" )
VALUE
"VDS" "variable" ( 1.8 ) PROP( )
"VGS" "variable" ( 1 ) PROP( )
"temp" "variable" ( 27 ) PROP( )
END
