HEADER
"PSFversion" "1.00"
"Time Stamp" "Dec  6 14:36:37 2019"
TYPE
"variable" STRUCT(
"value" FLOAT DOUBLE
) PROP( "key" "element" )
VALUE
"IDS1" "variable" ( 39.81071706e-6 ) PROP( )
"L" "variable" ( 180e-9 ) PROP( )
"NF" "variable" ( 1 ) PROP( )
"VDS1" "variable" ( 1 ) PROP( )
"WF" "variable" ( 10e-6 ) PROP( )
"temp" "variable" ( 27 ) PROP( )
END
