HEADER
"PSFversion" "1.00"
"Time Stamp" "Dec  9 14:44:30 2019"
TYPE
"variable" STRUCT(
"value" FLOAT DOUBLE
) PROP( "key" "element" )
VALUE
"WF" "variable" ( 10e-6 ) PROP( )
"VDS" "variable" ( 1 ) PROP( )
"NF" "variable" ( 1 ) PROP( )
"L" "variable" ( 1e-6 ) PROP( )
"IDS" "variable" ( 10e-6 ) PROP( )
"temp" "variable" ( 27 ) PROP( )
END
