HEADER
"PSFversion" "1.00"
"Time Stamp" "Dec  5 22:02:29 2019"
TYPE
"variable" STRUCT(
"value" FLOAT DOUBLE
) PROP( "key" "element" )
VALUE
"VGS" "variable" ( 1 ) PROP( )
"VDS" "variable" ( 900e-3 ) PROP( )
"temp" "variable" ( 27 ) PROP( )
END
