HEADER
"PSFversion" "1.00"
"Time Stamp" "Dec  5 22:14:23 2019"
TYPE
"variable" STRUCT(
"value" FLOAT DOUBLE
) PROP( "key" "element" )
VALUE
"VDS" "variable" ( 1 ) PROP( )
"VGS" "variable" ( 1.1 ) PROP( )
"temp" "variable" ( 27 ) PROP( )
END
