HEADER
"PSFversion" "1.00"
"Time Stamp" "Dec  6 00:07:21 2019"
TYPE
"variable" STRUCT(
"value" FLOAT DOUBLE
) PROP( "key" "element" )
VALUE
"WF1" "variable" ( 1e-6 ) PROP( )
"L1" "variable" ( 180e-9 ) PROP( )
"NF1" "variable" ( 1 ) PROP( )
"IDS1" "variable" ( 1e-6 ) PROP( )
"VDS1" "variable" ( 1.0 ) PROP( )
"temp" "variable" ( 27 ) PROP( )
END
