HEADER
"PSFversion" "1.00"
"Time Stamp" "Dec  6 14:24:38 2019"
TYPE
"variable" STRUCT(
"value" FLOAT DOUBLE
) PROP( "key" "element" )
VALUE
"WF" "variable" ( 10e-6 ) PROP( )
"VDS1" "variable" ( 1 ) PROP( )
"NF" "variable" ( 1 ) PROP( )
"L" "variable" ( 180e-9 ) PROP( )
"IDS1" "variable" ( 1e-3 ) PROP( )
"temp" "variable" ( 27 ) PROP( )
END
