HEADER
"PSFversion" "1.00"
"design" "(\"CHARACTERIZATION\" \"DC_BIAS_NMOS\" \"schematic\" \"\")"
"simulator" "spectre"
"temperature" "27"
"host" ""
"date" "Dec  4 23:25:27 2019"
"title" ""
"analysisList" "()"
END
