HEADER
"PSFversion" "1.00"
"design" "(\"CHARACTERIZATION\" \"FT\" \"schematic\" \"\")"
"simulator" "spectre"
"temperature" "27"
"host" ""
"date" "Dec  6 14:53:38 2019"
"title" ""
"analysisList" "()"
END
